HEADER
"PSFversion" "1.00"
"simulator" "spectre"
"version" "24.1.0.371.isr8"
"date" "6:32:31 PM, Thur Aug 7, 2025"
"design" "(no title)"
"analysis type" "info"
"analysis name" "designParamVals"
"analysis description" "Circuit Information"
"xVecSorted" "unknown"
"tolerance.relative" 1.000000000000000e-03
TYPE
"top-level" STRUCT(
"temp" FLOAT DOUBLE
"tnom" FLOAT DOUBLE
"temper" FLOAT DOUBLE
"time" FLOAT DOUBLE
"use_tran" FLOAT DOUBLE
"dc_offset" FLOAT DOUBLE
"rfeedback_val" FLOAT DOUBLE
"gain_n" FLOAT DOUBLE
"tempc" FLOAT DOUBLE
"nA1" FLOAT DOUBLE
"nB1" FLOAT DOUBLE
"nA2" FLOAT DOUBLE
"nB2" FLOAT DOUBLE
"nA3" FLOAT DOUBLE
"nB3" FLOAT DOUBLE
"nA4" FLOAT DOUBLE
"nB4" FLOAT DOUBLE
"nA5" FLOAT DOUBLE
"nB5" FLOAT DOUBLE
"nA6" FLOAT DOUBLE
"nB6" FLOAT DOUBLE
"nA7" FLOAT DOUBLE
"nB7" FLOAT DOUBLE
"nA8" FLOAT DOUBLE
"nB8" FLOAT DOUBLE
"vdd" FLOAT DOUBLE
"vcm" FLOAT DOUBLE
"vbiasp2" FLOAT DOUBLE
"vbiasn0" FLOAT DOUBLE
"vbiasn2" FLOAT DOUBLE
) PROP(
"key" "parameters"
)
VALUE
"top-level" "top-level" (
2.700000000000000e+01
2.700000000000000e+01
2.700000000000000e+01
0.000000000000000e+00
0.000000000000000e+00
0.000000000000000e+00
1.000000000000000e+04
-5.000000000000000e-01
2.700000000000000e+01
1.661343209653574e-08
6.000000000000000e+00
1.101071807777508e-08
7.000000000000000e+00
1.287933250920954e-08
1.200000000000000e+01
2.392205766478893e-08
3.000000000000000e+00
1.712097761510302e-08
8.000000000000000e+00
1.565358578374693e-08
1.700000000000000e+01
2.502153078701577e-08
5.000000000000000e+00
1.111079472685519e-08
1.600000000000000e+01
1.000000000000000e+00
5.000000000000000e-01
4.255880286268425e-01
3.006977346686430e-01
1.371701103221986e-01
)
END
