HEADER
"PSFversion" "1.00"
"Log Generator" "drlLog rev. 1.0"
"Log Time Stamp" "Thu Aug  7 18:32:31 2025"
"psfversion" "1.4.0"
"simulator" "spectre"
"version" "24.1.0.371.isr8"
"date" "6:32:31 PM, Thur Aug 7, 2025"
"design" "(no title)"
"signalNameType" "spectre"
"simMode" "Spectre"
"measdgt" 0
"ingold" 2
"sst2usecolon" 0
TYPE
"analysisInst" STRUCT(
"analysisType" STRING *
"dataFile" STRING *
"format" STRING *
"parent" STRING *
"sweepVariable" ARRAY ( * ) STRING *
"description" STRING *
)
VALUE
"noise-noise" "analysisInst" (
"noise"
"noise.noise"
"PSF"
""
("freq")
"Noise Analysis `noise': freq = (1 MHz -> 500 MHz)"
) PROP(
"data_type" "swept_struct"
)

"acswp_ac-sweep" "analysisInst" (
"sweep"
"acswp_ac.sweep"
"PSF"
""
("gain_n")
"Sweep parent"
) PROP(
"sweep_tree_type" "sweepNode"
)

"acswp-000_ac-ac" "analysisInst" (
"ac"
"acswp-000_ac.ac"
"PSF"
"acswp_ac-sweep"
("freq")
"AC Analysis `acswp-000_ac': freq = (1 Hz -> 100 GHz)"
) PROP(
"data_type" "swept_scalar"
"sweep_tree_type" "leafNode"
"gain_n" -0.500000
)

"acswp-001_ac-ac" "analysisInst" (
"ac"
"acswp-001_ac.ac"
"PSF"
"acswp_ac-sweep"
("freq")
"AC Analysis `acswp-001_ac': freq = (1 Hz -> 100 GHz)"
) PROP(
"data_type" "swept_scalar"
"sweep_tree_type" "leafNode"
"gain_n" 0.500000
)

"dcswp_dcOp-sweep" "analysisInst" (
"sweep"
"dcswp_dcOp.sweep"
"PSF"
""
("dc_offset")
"Sweep parent"
) PROP(
"sweep_tree_type" "sweepNode"
)

"dcswp-000_dcOp-dc" "analysisInst" (
"dc"
"dcswp-000_dcOp.dc"
"PSF"
"dcswp_dcOp-sweep"
()
"DC Analysis `dcswp-000_dcOp'"
) PROP(
"data_type" "scalar"
"sweep_tree_type" "leafNode"
"dc_offset" -0.500000
)

"dcswp-001_dcOp-dc" "analysisInst" (
"dc"
"dcswp-001_dcOp.dc"
"PSF"
"dcswp_dcOp-sweep"
()
"DC Analysis `dcswp-001_dcOp'"
) PROP(
"data_type" "scalar"
"sweep_tree_type" "leafNode"
"dc_offset" -0.499000
)

"dcswp-002_dcOp-dc" "analysisInst" (
"dc"
"dcswp-002_dcOp.dc"
"PSF"
"dcswp_dcOp-sweep"
()
"DC Analysis `dcswp-002_dcOp'"
) PROP(
"data_type" "scalar"
"sweep_tree_type" "leafNode"
"dc_offset" -0.498000
)

"dcswp-003_dcOp-dc" "analysisInst" (
"dc"
"dcswp-003_dcOp.dc"
"PSF"
"dcswp_dcOp-sweep"
()
"DC Analysis `dcswp-003_dcOp'"
) PROP(
"data_type" "scalar"
"sweep_tree_type" "leafNode"
"dc_offset" -0.497000
)

"dcswp-004_dcOp-dc" "analysisInst" (
"dc"
"dcswp-004_dcOp.dc"
"PSF"
"dcswp_dcOp-sweep"
()
"DC Analysis `dcswp-004_dcOp'"
) PROP(
"data_type" "scalar"
"sweep_tree_type" "leafNode"
"dc_offset" -0.496000
)

"dcswp-005_dcOp-dc" "analysisInst" (
"dc"
"dcswp-005_dcOp.dc"
"PSF"
"dcswp_dcOp-sweep"
()
"DC Analysis `dcswp-005_dcOp'"
) PROP(
"data_type" "scalar"
"sweep_tree_type" "leafNode"
"dc_offset" -0.495000
)

"dcswp-006_dcOp-dc" "analysisInst" (
"dc"
"dcswp-006_dcOp.dc"
"PSF"
"dcswp_dcOp-sweep"
()
"DC Analysis `dcswp-006_dcOp'"
) PROP(
"data_type" "scalar"
"sweep_tree_type" "leafNode"
"dc_offset" -0.494000
)

"dcswp-007_dcOp-dc" "analysisInst" (
"dc"
"dcswp-007_dcOp.dc"
"PSF"
"dcswp_dcOp-sweep"
()
"DC Analysis `dcswp-007_dcOp'"
) PROP(
"data_type" "scalar"
"sweep_tree_type" "leafNode"
"dc_offset" -0.493000
)

"dcswp-008_dcOp-dc" "analysisInst" (
"dc"
"dcswp-008_dcOp.dc"
"PSF"
"dcswp_dcOp-sweep"
()
"DC Analysis `dcswp-008_dcOp'"
) PROP(
"data_type" "scalar"
"sweep_tree_type" "leafNode"
"dc_offset" -0.492000
)

"dcswp-009_dcOp-dc" "analysisInst" (
"dc"
"dcswp-009_dcOp.dc"
"PSF"
"dcswp_dcOp-sweep"
()
"DC Analysis `dcswp-009_dcOp'"
) PROP(
"data_type" "scalar"
"sweep_tree_type" "leafNode"
"dc_offset" -0.491000
)

"dcswp-010_dcOp-dc" "analysisInst" (
"dc"
"dcswp-010_dcOp.dc"
"PSF"
"dcswp_dcOp-sweep"
()
"DC Analysis `dcswp-010_dcOp'"
) PROP(
"data_type" "scalar"
"sweep_tree_type" "leafNode"
"dc_offset" -0.490000
)

"dcswp-011_dcOp-dc" "analysisInst" (
"dc"
"dcswp-011_dcOp.dc"
"PSF"
"dcswp_dcOp-sweep"
()
"DC Analysis `dcswp-011_dcOp'"
) PROP(
"data_type" "scalar"
"sweep_tree_type" "leafNode"
"dc_offset" -0.489000
)

"dcswp-012_dcOp-dc" "analysisInst" (
"dc"
"dcswp-012_dcOp.dc"
"PSF"
"dcswp_dcOp-sweep"
()
"DC Analysis `dcswp-012_dcOp'"
) PROP(
"data_type" "scalar"
"sweep_tree_type" "leafNode"
"dc_offset" -0.488000
)

"dcswp-013_dcOp-dc" "analysisInst" (
"dc"
"dcswp-013_dcOp.dc"
"PSF"
"dcswp_dcOp-sweep"
()
"DC Analysis `dcswp-013_dcOp'"
) PROP(
"data_type" "scalar"
"sweep_tree_type" "leafNode"
"dc_offset" -0.487000
)

"dcswp-014_dcOp-dc" "analysisInst" (
"dc"
"dcswp-014_dcOp.dc"
"PSF"
"dcswp_dcOp-sweep"
()
"DC Analysis `dcswp-014_dcOp'"
) PROP(
"data_type" "scalar"
"sweep_tree_type" "leafNode"
"dc_offset" -0.486000
)

"dcswp-015_dcOp-dc" "analysisInst" (
"dc"
"dcswp-015_dcOp.dc"
"PSF"
"dcswp_dcOp-sweep"
()
"DC Analysis `dcswp-015_dcOp'"
) PROP(
"data_type" "scalar"
"sweep_tree_type" "leafNode"
"dc_offset" -0.485000
)

"dcswp-016_dcOp-dc" "analysisInst" (
"dc"
"dcswp-016_dcOp.dc"
"PSF"
"dcswp_dcOp-sweep"
()
"DC Analysis `dcswp-016_dcOp'"
) PROP(
"data_type" "scalar"
"sweep_tree_type" "leafNode"
"dc_offset" -0.484000
)

"dcswp-017_dcOp-dc" "analysisInst" (
"dc"
"dcswp-017_dcOp.dc"
"PSF"
"dcswp_dcOp-sweep"
()
"DC Analysis `dcswp-017_dcOp'"
) PROP(
"data_type" "scalar"
"sweep_tree_type" "leafNode"
"dc_offset" -0.483000
)

"dcswp-018_dcOp-dc" "analysisInst" (
"dc"
"dcswp-018_dcOp.dc"
"PSF"
"dcswp_dcOp-sweep"
()
"DC Analysis `dcswp-018_dcOp'"
) PROP(
"data_type" "scalar"
"sweep_tree_type" "leafNode"
"dc_offset" -0.482000
)

"dcswp-019_dcOp-dc" "analysisInst" (
"dc"
"dcswp-019_dcOp.dc"
"PSF"
"dcswp_dcOp-sweep"
()
"DC Analysis `dcswp-019_dcOp'"
) PROP(
"data_type" "scalar"
"sweep_tree_type" "leafNode"
"dc_offset" -0.481000
)

"dcswp-020_dcOp-dc" "analysisInst" (
"dc"
"dcswp-020_dcOp.dc"
"PSF"
"dcswp_dcOp-sweep"
()
"DC Analysis `dcswp-020_dcOp'"
) PROP(
"data_type" "scalar"
"sweep_tree_type" "leafNode"
"dc_offset" -0.480000
)

"dcswp-021_dcOp-dc" "analysisInst" (
"dc"
"dcswp-021_dcOp.dc"
"PSF"
"dcswp_dcOp-sweep"
()
"DC Analysis `dcswp-021_dcOp'"
) PROP(
"data_type" "scalar"
"sweep_tree_type" "leafNode"
"dc_offset" -0.479000
)

"dcswp-022_dcOp-dc" "analysisInst" (
"dc"
"dcswp-022_dcOp.dc"
"PSF"
"dcswp_dcOp-sweep"
()
"DC Analysis `dcswp-022_dcOp'"
) PROP(
"data_type" "scalar"
"sweep_tree_type" "leafNode"
"dc_offset" -0.478000
)

"dcswp-023_dcOp-dc" "analysisInst" (
"dc"
"dcswp-023_dcOp.dc"
"PSF"
"dcswp_dcOp-sweep"
()
"DC Analysis `dcswp-023_dcOp'"
) PROP(
"data_type" "scalar"
"sweep_tree_type" "leafNode"
"dc_offset" -0.477000
)

"dcswp-024_dcOp-dc" "analysisInst" (
"dc"
"dcswp-024_dcOp.dc"
"PSF"
"dcswp_dcOp-sweep"
()
"DC Analysis `dcswp-024_dcOp'"
) PROP(
"data_type" "scalar"
"sweep_tree_type" "leafNode"
"dc_offset" -0.476000
)

"dcswp-025_dcOp-dc" "analysisInst" (
"dc"
"dcswp-025_dcOp.dc"
"PSF"
"dcswp_dcOp-sweep"
()
"DC Analysis `dcswp-025_dcOp'"
) PROP(
"data_type" "scalar"
"sweep_tree_type" "leafNode"
"dc_offset" -0.475000
)

"dcswp-026_dcOp-dc" "analysisInst" (
"dc"
"dcswp-026_dcOp.dc"
"PSF"
"dcswp_dcOp-sweep"
()
"DC Analysis `dcswp-026_dcOp'"
) PROP(
"data_type" "scalar"
"sweep_tree_type" "leafNode"
"dc_offset" -0.474000
)

"dcswp-027_dcOp-dc" "analysisInst" (
"dc"
"dcswp-027_dcOp.dc"
"PSF"
"dcswp_dcOp-sweep"
()
"DC Analysis `dcswp-027_dcOp'"
) PROP(
"data_type" "scalar"
"sweep_tree_type" "leafNode"
"dc_offset" -0.473000
)

"dcswp-028_dcOp-dc" "analysisInst" (
"dc"
"dcswp-028_dcOp.dc"
"PSF"
"dcswp_dcOp-sweep"
()
"DC Analysis `dcswp-028_dcOp'"
) PROP(
"data_type" "scalar"
"sweep_tree_type" "leafNode"
"dc_offset" -0.472000
)

"dcswp-029_dcOp-dc" "analysisInst" (
"dc"
"dcswp-029_dcOp.dc"
"PSF"
"dcswp_dcOp-sweep"
()
"DC Analysis `dcswp-029_dcOp'"
) PROP(
"data_type" "scalar"
"sweep_tree_type" "leafNode"
"dc_offset" -0.471000
)

"dcswp-030_dcOp-dc" "analysisInst" (
"dc"
"dcswp-030_dcOp.dc"
"PSF"
"dcswp_dcOp-sweep"
()
"DC Analysis `dcswp-030_dcOp'"
) PROP(
"data_type" "scalar"
"sweep_tree_type" "leafNode"
"dc_offset" -0.470000
)

"dcswp-031_dcOp-dc" "analysisInst" (
"dc"
"dcswp-031_dcOp.dc"
"PSF"
"dcswp_dcOp-sweep"
()
"DC Analysis `dcswp-031_dcOp'"
) PROP(
"data_type" "scalar"
"sweep_tree_type" "leafNode"
"dc_offset" -0.469000
)

"dcswp-032_dcOp-dc" "analysisInst" (
"dc"
"dcswp-032_dcOp.dc"
"PSF"
"dcswp_dcOp-sweep"
()
"DC Analysis `dcswp-032_dcOp'"
) PROP(
"data_type" "scalar"
"sweep_tree_type" "leafNode"
"dc_offset" -0.468000
)

"dcswp-033_dcOp-dc" "analysisInst" (
"dc"
"dcswp-033_dcOp.dc"
"PSF"
"dcswp_dcOp-sweep"
()
"DC Analysis `dcswp-033_dcOp'"
) PROP(
"data_type" "scalar"
"sweep_tree_type" "leafNode"
"dc_offset" -0.467000
)

"dcswp-034_dcOp-dc" "analysisInst" (
"dc"
"dcswp-034_dcOp.dc"
"PSF"
"dcswp_dcOp-sweep"
()
"DC Analysis `dcswp-034_dcOp'"
) PROP(
"data_type" "scalar"
"sweep_tree_type" "leafNode"
"dc_offset" -0.466000
)

"dcswp-035_dcOp-dc" "analysisInst" (
"dc"
"dcswp-035_dcOp.dc"
"PSF"
"dcswp_dcOp-sweep"
()
"DC Analysis `dcswp-035_dcOp'"
) PROP(
"data_type" "scalar"
"sweep_tree_type" "leafNode"
"dc_offset" -0.465000
)

"dcswp-036_dcOp-dc" "analysisInst" (
"dc"
"dcswp-036_dcOp.dc"
"PSF"
"dcswp_dcOp-sweep"
()
"DC Analysis `dcswp-036_dcOp'"
) PROP(
"data_type" "scalar"
"sweep_tree_type" "leafNode"
"dc_offset" -0.464000
)

"dcswp-037_dcOp-dc" "analysisInst" (
"dc"
"dcswp-037_dcOp.dc"
"PSF"
"dcswp_dcOp-sweep"
()
"DC Analysis `dcswp-037_dcOp'"
) PROP(
"data_type" "scalar"
"sweep_tree_type" "leafNode"
"dc_offset" -0.463000
)

"dcswp-038_dcOp-dc" "analysisInst" (
"dc"
"dcswp-038_dcOp.dc"
"PSF"
"dcswp_dcOp-sweep"
()
"DC Analysis `dcswp-038_dcOp'"
) PROP(
"data_type" "scalar"
"sweep_tree_type" "leafNode"
"dc_offset" -0.462000
)

"dcswp-039_dcOp-dc" "analysisInst" (
"dc"
"dcswp-039_dcOp.dc"
"PSF"
"dcswp_dcOp-sweep"
()
"DC Analysis `dcswp-039_dcOp'"
) PROP(
"data_type" "scalar"
"sweep_tree_type" "leafNode"
"dc_offset" -0.461000
)

"dcswp-040_dcOp-dc" "analysisInst" (
"dc"
"dcswp-040_dcOp.dc"
"PSF"
"dcswp_dcOp-sweep"
()
"DC Analysis `dcswp-040_dcOp'"
) PROP(
"data_type" "scalar"
"sweep_tree_type" "leafNode"
"dc_offset" -0.460000
)

"dcswp-041_dcOp-dc" "analysisInst" (
"dc"
"dcswp-041_dcOp.dc"
"PSF"
"dcswp_dcOp-sweep"
()
"DC Analysis `dcswp-041_dcOp'"
) PROP(
"data_type" "scalar"
"sweep_tree_type" "leafNode"
"dc_offset" -0.459000
)

"dcswp-042_dcOp-dc" "analysisInst" (
"dc"
"dcswp-042_dcOp.dc"
"PSF"
"dcswp_dcOp-sweep"
()
"DC Analysis `dcswp-042_dcOp'"
) PROP(
"data_type" "scalar"
"sweep_tree_type" "leafNode"
"dc_offset" -0.458000
)

"dcswp-043_dcOp-dc" "analysisInst" (
"dc"
"dcswp-043_dcOp.dc"
"PSF"
"dcswp_dcOp-sweep"
()
"DC Analysis `dcswp-043_dcOp'"
) PROP(
"data_type" "scalar"
"sweep_tree_type" "leafNode"
"dc_offset" -0.457000
)

"dcswp-044_dcOp-dc" "analysisInst" (
"dc"
"dcswp-044_dcOp.dc"
"PSF"
"dcswp_dcOp-sweep"
()
"DC Analysis `dcswp-044_dcOp'"
) PROP(
"data_type" "scalar"
"sweep_tree_type" "leafNode"
"dc_offset" -0.456000
)

"dcswp-045_dcOp-dc" "analysisInst" (
"dc"
"dcswp-045_dcOp.dc"
"PSF"
"dcswp_dcOp-sweep"
()
"DC Analysis `dcswp-045_dcOp'"
) PROP(
"data_type" "scalar"
"sweep_tree_type" "leafNode"
"dc_offset" -0.455000
)

"dcswp-046_dcOp-dc" "analysisInst" (
"dc"
"dcswp-046_dcOp.dc"
"PSF"
"dcswp_dcOp-sweep"
()
"DC Analysis `dcswp-046_dcOp'"
) PROP(
"data_type" "scalar"
"sweep_tree_type" "leafNode"
"dc_offset" -0.454000
)

"dcswp-047_dcOp-dc" "analysisInst" (
"dc"
"dcswp-047_dcOp.dc"
"PSF"
"dcswp_dcOp-sweep"
()
"DC Analysis `dcswp-047_dcOp'"
) PROP(
"data_type" "scalar"
"sweep_tree_type" "leafNode"
"dc_offset" -0.453000
)

"dcswp-048_dcOp-dc" "analysisInst" (
"dc"
"dcswp-048_dcOp.dc"
"PSF"
"dcswp_dcOp-sweep"
()
"DC Analysis `dcswp-048_dcOp'"
) PROP(
"data_type" "scalar"
"sweep_tree_type" "leafNode"
"dc_offset" -0.452000
)

"dcswp-049_dcOp-dc" "analysisInst" (
"dc"
"dcswp-049_dcOp.dc"
"PSF"
"dcswp_dcOp-sweep"
()
"DC Analysis `dcswp-049_dcOp'"
) PROP(
"data_type" "scalar"
"sweep_tree_type" "leafNode"
"dc_offset" -0.451000
)

"dcswp-050_dcOp-dc" "analysisInst" (
"dc"
"dcswp-050_dcOp.dc"
"PSF"
"dcswp_dcOp-sweep"
()
"DC Analysis `dcswp-050_dcOp'"
) PROP(
"data_type" "scalar"
"sweep_tree_type" "leafNode"
"dc_offset" -0.450000
)

"dcswp-051_dcOp-dc" "analysisInst" (
"dc"
"dcswp-051_dcOp.dc"
"PSF"
"dcswp_dcOp-sweep"
()
"DC Analysis `dcswp-051_dcOp'"
) PROP(
"data_type" "scalar"
"sweep_tree_type" "leafNode"
"dc_offset" -0.449000
)

"dcswp-052_dcOp-dc" "analysisInst" (
"dc"
"dcswp-052_dcOp.dc"
"PSF"
"dcswp_dcOp-sweep"
()
"DC Analysis `dcswp-052_dcOp'"
) PROP(
"data_type" "scalar"
"sweep_tree_type" "leafNode"
"dc_offset" -0.448000
)

"dcswp-053_dcOp-dc" "analysisInst" (
"dc"
"dcswp-053_dcOp.dc"
"PSF"
"dcswp_dcOp-sweep"
()
"DC Analysis `dcswp-053_dcOp'"
) PROP(
"data_type" "scalar"
"sweep_tree_type" "leafNode"
"dc_offset" -0.447000
)

"dcswp-054_dcOp-dc" "analysisInst" (
"dc"
"dcswp-054_dcOp.dc"
"PSF"
"dcswp_dcOp-sweep"
()
"DC Analysis `dcswp-054_dcOp'"
) PROP(
"data_type" "scalar"
"sweep_tree_type" "leafNode"
"dc_offset" -0.446000
)

"dcswp-055_dcOp-dc" "analysisInst" (
"dc"
"dcswp-055_dcOp.dc"
"PSF"
"dcswp_dcOp-sweep"
()
"DC Analysis `dcswp-055_dcOp'"
) PROP(
"data_type" "scalar"
"sweep_tree_type" "leafNode"
"dc_offset" -0.445000
)

"dcswp-056_dcOp-dc" "analysisInst" (
"dc"
"dcswp-056_dcOp.dc"
"PSF"
"dcswp_dcOp-sweep"
()
"DC Analysis `dcswp-056_dcOp'"
) PROP(
"data_type" "scalar"
"sweep_tree_type" "leafNode"
"dc_offset" -0.444000
)

"dcswp-057_dcOp-dc" "analysisInst" (
"dc"
"dcswp-057_dcOp.dc"
"PSF"
"dcswp_dcOp-sweep"
()
"DC Analysis `dcswp-057_dcOp'"
) PROP(
"data_type" "scalar"
"sweep_tree_type" "leafNode"
"dc_offset" -0.443000
)

"dcswp-058_dcOp-dc" "analysisInst" (
"dc"
"dcswp-058_dcOp.dc"
"PSF"
"dcswp_dcOp-sweep"
()
"DC Analysis `dcswp-058_dcOp'"
) PROP(
"data_type" "scalar"
"sweep_tree_type" "leafNode"
"dc_offset" -0.442000
)

"dcswp-059_dcOp-dc" "analysisInst" (
"dc"
"dcswp-059_dcOp.dc"
"PSF"
"dcswp_dcOp-sweep"
()
"DC Analysis `dcswp-059_dcOp'"
) PROP(
"data_type" "scalar"
"sweep_tree_type" "leafNode"
"dc_offset" -0.441000
)

"dcswp-060_dcOp-dc" "analysisInst" (
"dc"
"dcswp-060_dcOp.dc"
"PSF"
"dcswp_dcOp-sweep"
()
"DC Analysis `dcswp-060_dcOp'"
) PROP(
"data_type" "scalar"
"sweep_tree_type" "leafNode"
"dc_offset" -0.440000
)

"dcswp-061_dcOp-dc" "analysisInst" (
"dc"
"dcswp-061_dcOp.dc"
"PSF"
"dcswp_dcOp-sweep"
()
"DC Analysis `dcswp-061_dcOp'"
) PROP(
"data_type" "scalar"
"sweep_tree_type" "leafNode"
"dc_offset" -0.439000
)

"dcswp-062_dcOp-dc" "analysisInst" (
"dc"
"dcswp-062_dcOp.dc"
"PSF"
"dcswp_dcOp-sweep"
()
"DC Analysis `dcswp-062_dcOp'"
) PROP(
"data_type" "scalar"
"sweep_tree_type" "leafNode"
"dc_offset" -0.438000
)

"dcswp-063_dcOp-dc" "analysisInst" (
"dc"
"dcswp-063_dcOp.dc"
"PSF"
"dcswp_dcOp-sweep"
()
"DC Analysis `dcswp-063_dcOp'"
) PROP(
"data_type" "scalar"
"sweep_tree_type" "leafNode"
"dc_offset" -0.437000
)

"dcswp-064_dcOp-dc" "analysisInst" (
"dc"
"dcswp-064_dcOp.dc"
"PSF"
"dcswp_dcOp-sweep"
()
"DC Analysis `dcswp-064_dcOp'"
) PROP(
"data_type" "scalar"
"sweep_tree_type" "leafNode"
"dc_offset" -0.436000
)

"dcswp-065_dcOp-dc" "analysisInst" (
"dc"
"dcswp-065_dcOp.dc"
"PSF"
"dcswp_dcOp-sweep"
()
"DC Analysis `dcswp-065_dcOp'"
) PROP(
"data_type" "scalar"
"sweep_tree_type" "leafNode"
"dc_offset" -0.435000
)

"dcswp-066_dcOp-dc" "analysisInst" (
"dc"
"dcswp-066_dcOp.dc"
"PSF"
"dcswp_dcOp-sweep"
()
"DC Analysis `dcswp-066_dcOp'"
) PROP(
"data_type" "scalar"
"sweep_tree_type" "leafNode"
"dc_offset" -0.434000
)

"dcswp-067_dcOp-dc" "analysisInst" (
"dc"
"dcswp-067_dcOp.dc"
"PSF"
"dcswp_dcOp-sweep"
()
"DC Analysis `dcswp-067_dcOp'"
) PROP(
"data_type" "scalar"
"sweep_tree_type" "leafNode"
"dc_offset" -0.433000
)

"dcswp-068_dcOp-dc" "analysisInst" (
"dc"
"dcswp-068_dcOp.dc"
"PSF"
"dcswp_dcOp-sweep"
()
"DC Analysis `dcswp-068_dcOp'"
) PROP(
"data_type" "scalar"
"sweep_tree_type" "leafNode"
"dc_offset" -0.432000
)

"dcswp-069_dcOp-dc" "analysisInst" (
"dc"
"dcswp-069_dcOp.dc"
"PSF"
"dcswp_dcOp-sweep"
()
"DC Analysis `dcswp-069_dcOp'"
) PROP(
"data_type" "scalar"
"sweep_tree_type" "leafNode"
"dc_offset" -0.431000
)

"dcswp-070_dcOp-dc" "analysisInst" (
"dc"
"dcswp-070_dcOp.dc"
"PSF"
"dcswp_dcOp-sweep"
()
"DC Analysis `dcswp-070_dcOp'"
) PROP(
"data_type" "scalar"
"sweep_tree_type" "leafNode"
"dc_offset" -0.430000
)

"dcswp-071_dcOp-dc" "analysisInst" (
"dc"
"dcswp-071_dcOp.dc"
"PSF"
"dcswp_dcOp-sweep"
()
"DC Analysis `dcswp-071_dcOp'"
) PROP(
"data_type" "scalar"
"sweep_tree_type" "leafNode"
"dc_offset" -0.429000
)

"dcswp-072_dcOp-dc" "analysisInst" (
"dc"
"dcswp-072_dcOp.dc"
"PSF"
"dcswp_dcOp-sweep"
()
"DC Analysis `dcswp-072_dcOp'"
) PROP(
"data_type" "scalar"
"sweep_tree_type" "leafNode"
"dc_offset" -0.428000
)

"dcswp-073_dcOp-dc" "analysisInst" (
"dc"
"dcswp-073_dcOp.dc"
"PSF"
"dcswp_dcOp-sweep"
()
"DC Analysis `dcswp-073_dcOp'"
) PROP(
"data_type" "scalar"
"sweep_tree_type" "leafNode"
"dc_offset" -0.427000
)

"dcswp-074_dcOp-dc" "analysisInst" (
"dc"
"dcswp-074_dcOp.dc"
"PSF"
"dcswp_dcOp-sweep"
()
"DC Analysis `dcswp-074_dcOp'"
) PROP(
"data_type" "scalar"
"sweep_tree_type" "leafNode"
"dc_offset" -0.426000
)

"dcswp-075_dcOp-dc" "analysisInst" (
"dc"
"dcswp-075_dcOp.dc"
"PSF"
"dcswp_dcOp-sweep"
()
"DC Analysis `dcswp-075_dcOp'"
) PROP(
"data_type" "scalar"
"sweep_tree_type" "leafNode"
"dc_offset" -0.425000
)

"dcswp-076_dcOp-dc" "analysisInst" (
"dc"
"dcswp-076_dcOp.dc"
"PSF"
"dcswp_dcOp-sweep"
()
"DC Analysis `dcswp-076_dcOp'"
) PROP(
"data_type" "scalar"
"sweep_tree_type" "leafNode"
"dc_offset" -0.424000
)

"dcswp-077_dcOp-dc" "analysisInst" (
"dc"
"dcswp-077_dcOp.dc"
"PSF"
"dcswp_dcOp-sweep"
()
"DC Analysis `dcswp-077_dcOp'"
) PROP(
"data_type" "scalar"
"sweep_tree_type" "leafNode"
"dc_offset" -0.423000
)

"dcswp-078_dcOp-dc" "analysisInst" (
"dc"
"dcswp-078_dcOp.dc"
"PSF"
"dcswp_dcOp-sweep"
()
"DC Analysis `dcswp-078_dcOp'"
) PROP(
"data_type" "scalar"
"sweep_tree_type" "leafNode"
"dc_offset" -0.422000
)

"dcswp-079_dcOp-dc" "analysisInst" (
"dc"
"dcswp-079_dcOp.dc"
"PSF"
"dcswp_dcOp-sweep"
()
"DC Analysis `dcswp-079_dcOp'"
) PROP(
"data_type" "scalar"
"sweep_tree_type" "leafNode"
"dc_offset" -0.421000
)

"dcswp-080_dcOp-dc" "analysisInst" (
"dc"
"dcswp-080_dcOp.dc"
"PSF"
"dcswp_dcOp-sweep"
()
"DC Analysis `dcswp-080_dcOp'"
) PROP(
"data_type" "scalar"
"sweep_tree_type" "leafNode"
"dc_offset" -0.420000
)

"dcswp-081_dcOp-dc" "analysisInst" (
"dc"
"dcswp-081_dcOp.dc"
"PSF"
"dcswp_dcOp-sweep"
()
"DC Analysis `dcswp-081_dcOp'"
) PROP(
"data_type" "scalar"
"sweep_tree_type" "leafNode"
"dc_offset" -0.419000
)

"dcswp-082_dcOp-dc" "analysisInst" (
"dc"
"dcswp-082_dcOp.dc"
"PSF"
"dcswp_dcOp-sweep"
()
"DC Analysis `dcswp-082_dcOp'"
) PROP(
"data_type" "scalar"
"sweep_tree_type" "leafNode"
"dc_offset" -0.418000
)

"dcswp-083_dcOp-dc" "analysisInst" (
"dc"
"dcswp-083_dcOp.dc"
"PSF"
"dcswp_dcOp-sweep"
()
"DC Analysis `dcswp-083_dcOp'"
) PROP(
"data_type" "scalar"
"sweep_tree_type" "leafNode"
"dc_offset" -0.417000
)

"dcswp-084_dcOp-dc" "analysisInst" (
"dc"
"dcswp-084_dcOp.dc"
"PSF"
"dcswp_dcOp-sweep"
()
"DC Analysis `dcswp-084_dcOp'"
) PROP(
"data_type" "scalar"
"sweep_tree_type" "leafNode"
"dc_offset" -0.416000
)

"dcswp-085_dcOp-dc" "analysisInst" (
"dc"
"dcswp-085_dcOp.dc"
"PSF"
"dcswp_dcOp-sweep"
()
"DC Analysis `dcswp-085_dcOp'"
) PROP(
"data_type" "scalar"
"sweep_tree_type" "leafNode"
"dc_offset" -0.415000
)

"dcswp-086_dcOp-dc" "analysisInst" (
"dc"
"dcswp-086_dcOp.dc"
"PSF"
"dcswp_dcOp-sweep"
()
"DC Analysis `dcswp-086_dcOp'"
) PROP(
"data_type" "scalar"
"sweep_tree_type" "leafNode"
"dc_offset" -0.414000
)

"dcswp-087_dcOp-dc" "analysisInst" (
"dc"
"dcswp-087_dcOp.dc"
"PSF"
"dcswp_dcOp-sweep"
()
"DC Analysis `dcswp-087_dcOp'"
) PROP(
"data_type" "scalar"
"sweep_tree_type" "leafNode"
"dc_offset" -0.413000
)

"dcswp-088_dcOp-dc" "analysisInst" (
"dc"
"dcswp-088_dcOp.dc"
"PSF"
"dcswp_dcOp-sweep"
()
"DC Analysis `dcswp-088_dcOp'"
) PROP(
"data_type" "scalar"
"sweep_tree_type" "leafNode"
"dc_offset" -0.412000
)

"dcswp-089_dcOp-dc" "analysisInst" (
"dc"
"dcswp-089_dcOp.dc"
"PSF"
"dcswp_dcOp-sweep"
()
"DC Analysis `dcswp-089_dcOp'"
) PROP(
"data_type" "scalar"
"sweep_tree_type" "leafNode"
"dc_offset" -0.411000
)

"dcswp-090_dcOp-dc" "analysisInst" (
"dc"
"dcswp-090_dcOp.dc"
"PSF"
"dcswp_dcOp-sweep"
()
"DC Analysis `dcswp-090_dcOp'"
) PROP(
"data_type" "scalar"
"sweep_tree_type" "leafNode"
"dc_offset" -0.410000
)

"dcswp-091_dcOp-dc" "analysisInst" (
"dc"
"dcswp-091_dcOp.dc"
"PSF"
"dcswp_dcOp-sweep"
()
"DC Analysis `dcswp-091_dcOp'"
) PROP(
"data_type" "scalar"
"sweep_tree_type" "leafNode"
"dc_offset" -0.409000
)

"dcswp-092_dcOp-dc" "analysisInst" (
"dc"
"dcswp-092_dcOp.dc"
"PSF"
"dcswp_dcOp-sweep"
()
"DC Analysis `dcswp-092_dcOp'"
) PROP(
"data_type" "scalar"
"sweep_tree_type" "leafNode"
"dc_offset" -0.408000
)

"dcswp-093_dcOp-dc" "analysisInst" (
"dc"
"dcswp-093_dcOp.dc"
"PSF"
"dcswp_dcOp-sweep"
()
"DC Analysis `dcswp-093_dcOp'"
) PROP(
"data_type" "scalar"
"sweep_tree_type" "leafNode"
"dc_offset" -0.407000
)

"dcswp-094_dcOp-dc" "analysisInst" (
"dc"
"dcswp-094_dcOp.dc"
"PSF"
"dcswp_dcOp-sweep"
()
"DC Analysis `dcswp-094_dcOp'"
) PROP(
"data_type" "scalar"
"sweep_tree_type" "leafNode"
"dc_offset" -0.406000
)

"dcswp-095_dcOp-dc" "analysisInst" (
"dc"
"dcswp-095_dcOp.dc"
"PSF"
"dcswp_dcOp-sweep"
()
"DC Analysis `dcswp-095_dcOp'"
) PROP(
"data_type" "scalar"
"sweep_tree_type" "leafNode"
"dc_offset" -0.405000
)

"dcswp-096_dcOp-dc" "analysisInst" (
"dc"
"dcswp-096_dcOp.dc"
"PSF"
"dcswp_dcOp-sweep"
()
"DC Analysis `dcswp-096_dcOp'"
) PROP(
"data_type" "scalar"
"sweep_tree_type" "leafNode"
"dc_offset" -0.404000
)

"dcswp-097_dcOp-dc" "analysisInst" (
"dc"
"dcswp-097_dcOp.dc"
"PSF"
"dcswp_dcOp-sweep"
()
"DC Analysis `dcswp-097_dcOp'"
) PROP(
"data_type" "scalar"
"sweep_tree_type" "leafNode"
"dc_offset" -0.403000
)

"dcswp-098_dcOp-dc" "analysisInst" (
"dc"
"dcswp-098_dcOp.dc"
"PSF"
"dcswp_dcOp-sweep"
()
"DC Analysis `dcswp-098_dcOp'"
) PROP(
"data_type" "scalar"
"sweep_tree_type" "leafNode"
"dc_offset" -0.402000
)

"dcswp-099_dcOp-dc" "analysisInst" (
"dc"
"dcswp-099_dcOp.dc"
"PSF"
"dcswp_dcOp-sweep"
()
"DC Analysis `dcswp-099_dcOp'"
) PROP(
"data_type" "scalar"
"sweep_tree_type" "leafNode"
"dc_offset" -0.401000
)

"dcswp-100_dcOp-dc" "analysisInst" (
"dc"
"dcswp-100_dcOp.dc"
"PSF"
"dcswp_dcOp-sweep"
()
"DC Analysis `dcswp-100_dcOp'"
) PROP(
"data_type" "scalar"
"sweep_tree_type" "leafNode"
"dc_offset" -0.400000
)

"dcswp-101_dcOp-dc" "analysisInst" (
"dc"
"dcswp-101_dcOp.dc"
"PSF"
"dcswp_dcOp-sweep"
()
"DC Analysis `dcswp-101_dcOp'"
) PROP(
"data_type" "scalar"
"sweep_tree_type" "leafNode"
"dc_offset" -0.399000
)

"dcswp-102_dcOp-dc" "analysisInst" (
"dc"
"dcswp-102_dcOp.dc"
"PSF"
"dcswp_dcOp-sweep"
()
"DC Analysis `dcswp-102_dcOp'"
) PROP(
"data_type" "scalar"
"sweep_tree_type" "leafNode"
"dc_offset" -0.398000
)

"dcswp-103_dcOp-dc" "analysisInst" (
"dc"
"dcswp-103_dcOp.dc"
"PSF"
"dcswp_dcOp-sweep"
()
"DC Analysis `dcswp-103_dcOp'"
) PROP(
"data_type" "scalar"
"sweep_tree_type" "leafNode"
"dc_offset" -0.397000
)

"dcswp-104_dcOp-dc" "analysisInst" (
"dc"
"dcswp-104_dcOp.dc"
"PSF"
"dcswp_dcOp-sweep"
()
"DC Analysis `dcswp-104_dcOp'"
) PROP(
"data_type" "scalar"
"sweep_tree_type" "leafNode"
"dc_offset" -0.396000
)

"dcswp-105_dcOp-dc" "analysisInst" (
"dc"
"dcswp-105_dcOp.dc"
"PSF"
"dcswp_dcOp-sweep"
()
"DC Analysis `dcswp-105_dcOp'"
) PROP(
"data_type" "scalar"
"sweep_tree_type" "leafNode"
"dc_offset" -0.395000
)

"dcswp-106_dcOp-dc" "analysisInst" (
"dc"
"dcswp-106_dcOp.dc"
"PSF"
"dcswp_dcOp-sweep"
()
"DC Analysis `dcswp-106_dcOp'"
) PROP(
"data_type" "scalar"
"sweep_tree_type" "leafNode"
"dc_offset" -0.394000
)

"dcswp-107_dcOp-dc" "analysisInst" (
"dc"
"dcswp-107_dcOp.dc"
"PSF"
"dcswp_dcOp-sweep"
()
"DC Analysis `dcswp-107_dcOp'"
) PROP(
"data_type" "scalar"
"sweep_tree_type" "leafNode"
"dc_offset" -0.393000
)

"dcswp-108_dcOp-dc" "analysisInst" (
"dc"
"dcswp-108_dcOp.dc"
"PSF"
"dcswp_dcOp-sweep"
()
"DC Analysis `dcswp-108_dcOp'"
) PROP(
"data_type" "scalar"
"sweep_tree_type" "leafNode"
"dc_offset" -0.392000
)

"dcswp-109_dcOp-dc" "analysisInst" (
"dc"
"dcswp-109_dcOp.dc"
"PSF"
"dcswp_dcOp-sweep"
()
"DC Analysis `dcswp-109_dcOp'"
) PROP(
"data_type" "scalar"
"sweep_tree_type" "leafNode"
"dc_offset" -0.391000
)

"dcswp-110_dcOp-dc" "analysisInst" (
"dc"
"dcswp-110_dcOp.dc"
"PSF"
"dcswp_dcOp-sweep"
()
"DC Analysis `dcswp-110_dcOp'"
) PROP(
"data_type" "scalar"
"sweep_tree_type" "leafNode"
"dc_offset" -0.390000
)

"dcswp-111_dcOp-dc" "analysisInst" (
"dc"
"dcswp-111_dcOp.dc"
"PSF"
"dcswp_dcOp-sweep"
()
"DC Analysis `dcswp-111_dcOp'"
) PROP(
"data_type" "scalar"
"sweep_tree_type" "leafNode"
"dc_offset" -0.389000
)

"dcswp-112_dcOp-dc" "analysisInst" (
"dc"
"dcswp-112_dcOp.dc"
"PSF"
"dcswp_dcOp-sweep"
()
"DC Analysis `dcswp-112_dcOp'"
) PROP(
"data_type" "scalar"
"sweep_tree_type" "leafNode"
"dc_offset" -0.388000
)

"dcswp-113_dcOp-dc" "analysisInst" (
"dc"
"dcswp-113_dcOp.dc"
"PSF"
"dcswp_dcOp-sweep"
()
"DC Analysis `dcswp-113_dcOp'"
) PROP(
"data_type" "scalar"
"sweep_tree_type" "leafNode"
"dc_offset" -0.387000
)

"dcswp-114_dcOp-dc" "analysisInst" (
"dc"
"dcswp-114_dcOp.dc"
"PSF"
"dcswp_dcOp-sweep"
()
"DC Analysis `dcswp-114_dcOp'"
) PROP(
"data_type" "scalar"
"sweep_tree_type" "leafNode"
"dc_offset" -0.386000
)

"dcswp-115_dcOp-dc" "analysisInst" (
"dc"
"dcswp-115_dcOp.dc"
"PSF"
"dcswp_dcOp-sweep"
()
"DC Analysis `dcswp-115_dcOp'"
) PROP(
"data_type" "scalar"
"sweep_tree_type" "leafNode"
"dc_offset" -0.385000
)

"dcswp-116_dcOp-dc" "analysisInst" (
"dc"
"dcswp-116_dcOp.dc"
"PSF"
"dcswp_dcOp-sweep"
()
"DC Analysis `dcswp-116_dcOp'"
) PROP(
"data_type" "scalar"
"sweep_tree_type" "leafNode"
"dc_offset" -0.384000
)

"dcswp-117_dcOp-dc" "analysisInst" (
"dc"
"dcswp-117_dcOp.dc"
"PSF"
"dcswp_dcOp-sweep"
()
"DC Analysis `dcswp-117_dcOp'"
) PROP(
"data_type" "scalar"
"sweep_tree_type" "leafNode"
"dc_offset" -0.383000
)

"dcswp-118_dcOp-dc" "analysisInst" (
"dc"
"dcswp-118_dcOp.dc"
"PSF"
"dcswp_dcOp-sweep"
()
"DC Analysis `dcswp-118_dcOp'"
) PROP(
"data_type" "scalar"
"sweep_tree_type" "leafNode"
"dc_offset" -0.382000
)

"dcswp-119_dcOp-dc" "analysisInst" (
"dc"
"dcswp-119_dcOp.dc"
"PSF"
"dcswp_dcOp-sweep"
()
"DC Analysis `dcswp-119_dcOp'"
) PROP(
"data_type" "scalar"
"sweep_tree_type" "leafNode"
"dc_offset" -0.381000
)

"dcswp-120_dcOp-dc" "analysisInst" (
"dc"
"dcswp-120_dcOp.dc"
"PSF"
"dcswp_dcOp-sweep"
()
"DC Analysis `dcswp-120_dcOp'"
) PROP(
"data_type" "scalar"
"sweep_tree_type" "leafNode"
"dc_offset" -0.380000
)

"dcswp-121_dcOp-dc" "analysisInst" (
"dc"
"dcswp-121_dcOp.dc"
"PSF"
"dcswp_dcOp-sweep"
()
"DC Analysis `dcswp-121_dcOp'"
) PROP(
"data_type" "scalar"
"sweep_tree_type" "leafNode"
"dc_offset" -0.379000
)

"dcswp-122_dcOp-dc" "analysisInst" (
"dc"
"dcswp-122_dcOp.dc"
"PSF"
"dcswp_dcOp-sweep"
()
"DC Analysis `dcswp-122_dcOp'"
) PROP(
"data_type" "scalar"
"sweep_tree_type" "leafNode"
"dc_offset" -0.378000
)

"dcswp-123_dcOp-dc" "analysisInst" (
"dc"
"dcswp-123_dcOp.dc"
"PSF"
"dcswp_dcOp-sweep"
()
"DC Analysis `dcswp-123_dcOp'"
) PROP(
"data_type" "scalar"
"sweep_tree_type" "leafNode"
"dc_offset" -0.377000
)

"dcswp-124_dcOp-dc" "analysisInst" (
"dc"
"dcswp-124_dcOp.dc"
"PSF"
"dcswp_dcOp-sweep"
()
"DC Analysis `dcswp-124_dcOp'"
) PROP(
"data_type" "scalar"
"sweep_tree_type" "leafNode"
"dc_offset" -0.376000
)

"dcswp-125_dcOp-dc" "analysisInst" (
"dc"
"dcswp-125_dcOp.dc"
"PSF"
"dcswp_dcOp-sweep"
()
"DC Analysis `dcswp-125_dcOp'"
) PROP(
"data_type" "scalar"
"sweep_tree_type" "leafNode"
"dc_offset" -0.375000
)

"dcswp-126_dcOp-dc" "analysisInst" (
"dc"
"dcswp-126_dcOp.dc"
"PSF"
"dcswp_dcOp-sweep"
()
"DC Analysis `dcswp-126_dcOp'"
) PROP(
"data_type" "scalar"
"sweep_tree_type" "leafNode"
"dc_offset" -0.374000
)

"dcswp-127_dcOp-dc" "analysisInst" (
"dc"
"dcswp-127_dcOp.dc"
"PSF"
"dcswp_dcOp-sweep"
()
"DC Analysis `dcswp-127_dcOp'"
) PROP(
"data_type" "scalar"
"sweep_tree_type" "leafNode"
"dc_offset" -0.373000
)

"dcswp-128_dcOp-dc" "analysisInst" (
"dc"
"dcswp-128_dcOp.dc"
"PSF"
"dcswp_dcOp-sweep"
()
"DC Analysis `dcswp-128_dcOp'"
) PROP(
"data_type" "scalar"
"sweep_tree_type" "leafNode"
"dc_offset" -0.372000
)

"dcswp-129_dcOp-dc" "analysisInst" (
"dc"
"dcswp-129_dcOp.dc"
"PSF"
"dcswp_dcOp-sweep"
()
"DC Analysis `dcswp-129_dcOp'"
) PROP(
"data_type" "scalar"
"sweep_tree_type" "leafNode"
"dc_offset" -0.371000
)

"dcswp-130_dcOp-dc" "analysisInst" (
"dc"
"dcswp-130_dcOp.dc"
"PSF"
"dcswp_dcOp-sweep"
()
"DC Analysis `dcswp-130_dcOp'"
) PROP(
"data_type" "scalar"
"sweep_tree_type" "leafNode"
"dc_offset" -0.370000
)

"dcswp-131_dcOp-dc" "analysisInst" (
"dc"
"dcswp-131_dcOp.dc"
"PSF"
"dcswp_dcOp-sweep"
()
"DC Analysis `dcswp-131_dcOp'"
) PROP(
"data_type" "scalar"
"sweep_tree_type" "leafNode"
"dc_offset" -0.369000
)

"dcswp-132_dcOp-dc" "analysisInst" (
"dc"
"dcswp-132_dcOp.dc"
"PSF"
"dcswp_dcOp-sweep"
()
"DC Analysis `dcswp-132_dcOp'"
) PROP(
"data_type" "scalar"
"sweep_tree_type" "leafNode"
"dc_offset" -0.368000
)

"dcswp-133_dcOp-dc" "analysisInst" (
"dc"
"dcswp-133_dcOp.dc"
"PSF"
"dcswp_dcOp-sweep"
()
"DC Analysis `dcswp-133_dcOp'"
) PROP(
"data_type" "scalar"
"sweep_tree_type" "leafNode"
"dc_offset" -0.367000
)

"dcswp-134_dcOp-dc" "analysisInst" (
"dc"
"dcswp-134_dcOp.dc"
"PSF"
"dcswp_dcOp-sweep"
()
"DC Analysis `dcswp-134_dcOp'"
) PROP(
"data_type" "scalar"
"sweep_tree_type" "leafNode"
"dc_offset" -0.366000
)

"dcswp-135_dcOp-dc" "analysisInst" (
"dc"
"dcswp-135_dcOp.dc"
"PSF"
"dcswp_dcOp-sweep"
()
"DC Analysis `dcswp-135_dcOp'"
) PROP(
"data_type" "scalar"
"sweep_tree_type" "leafNode"
"dc_offset" -0.365000
)

"dcswp-136_dcOp-dc" "analysisInst" (
"dc"
"dcswp-136_dcOp.dc"
"PSF"
"dcswp_dcOp-sweep"
()
"DC Analysis `dcswp-136_dcOp'"
) PROP(
"data_type" "scalar"
"sweep_tree_type" "leafNode"
"dc_offset" -0.364000
)

"dcswp-137_dcOp-dc" "analysisInst" (
"dc"
"dcswp-137_dcOp.dc"
"PSF"
"dcswp_dcOp-sweep"
()
"DC Analysis `dcswp-137_dcOp'"
) PROP(
"data_type" "scalar"
"sweep_tree_type" "leafNode"
"dc_offset" -0.363000
)

"dcswp-138_dcOp-dc" "analysisInst" (
"dc"
"dcswp-138_dcOp.dc"
"PSF"
"dcswp_dcOp-sweep"
()
"DC Analysis `dcswp-138_dcOp'"
) PROP(
"data_type" "scalar"
"sweep_tree_type" "leafNode"
"dc_offset" -0.362000
)

"dcswp-139_dcOp-dc" "analysisInst" (
"dc"
"dcswp-139_dcOp.dc"
"PSF"
"dcswp_dcOp-sweep"
()
"DC Analysis `dcswp-139_dcOp'"
) PROP(
"data_type" "scalar"
"sweep_tree_type" "leafNode"
"dc_offset" -0.361000
)

"dcswp-140_dcOp-dc" "analysisInst" (
"dc"