HEADER
"PSFversion" "1.00"
"simulator" "spectre"
"version" "24.1.0.371.isr8"
"date" "6:32:31 PM, Thur Aug 7, 2025"
"design" "(no title)"
"analysis type" "info.subckts"
"analysis name" "subckts"
"analysis description" "Circuit Information"
"xVecSorted" "unknown"
"tolerance.relative" 1.000000000000000e-03
END
